198       
 energy: -5550.147770852109 gnorm: 0.032618526128 xtb: 6.7.1 (28d6122) iter: 41
N 14.980536 2.679183 12.389604
N 13.390365 4.231790 7.692834
N 13.445654 7.492080 7.368213
N 10.405940 8.306056 12.001895
N 8.972656 5.643988 14.136626
N 20.614277 6.668014 14.635773
N 12.785618 4.836524 14.764073
N 18.000711 6.161218 12.558318
C 18.378000 6.298000 7.413000
C 17.986244 7.259171 8.519791
C 15.474000 2.920000 7.970000
C 14.716763 4.118654 7.438781
C 16.459507 3.358769 9.073398
C 16.052731 2.912906 10.436012
C 15.046842 3.392274 11.219046
C 16.656651 1.843111 11.165430
C 15.964931 1.733464 12.385392
C 17.721563 0.979211 10.908705
C 16.304495 0.792689 13.353302
C 18.062679 0.046651 11.861507
C 17.359379 -0.044812 13.070970
C 12.610000 5.248000 6.997000
C 12.600245 6.553066 7.789469
C 11.223875 4.634733 6.904295
C 11.139245 3.763351 8.144643
C 12.544298 3.206937 8.300496
C 13.654000 8.721000 8.149000
C 14.517700 9.742062 7.443614
C 14.746662 10.953570 8.322826
C 15.697074 11.925414 7.606658
C 6.181000 8.303000 11.393000
C 6.949505 9.601324 11.519264
C 8.426762 9.403619 11.260849
C 9.161659 8.632062 12.335148
C 9.683000 3.447000 13.440000
C 9.380089 4.874942 13.119286
C 8.713000 5.185000 15.483000
C 9.382536 6.130701 16.464775
C 11.304000 1.104000 17.209000
C 12.200791 2.245163 16.790630
C 13.526615 1.753714 16.272673
C 14.965000 4.127000 22.080999
C 15.101443 4.284193 20.579226
C 13.954034 5.076400 19.983862
C 12.863791 6.467622 17.862669
C 20.693001 4.691000 16.016001
C 21.074257 6.143200 15.790736
C 19.263208 4.608153 16.515278
C 18.795403 3.187467 16.804022
C 17.380905 3.214815 17.356520
C 18.856688 2.307706 15.566922
C 20.662001 8.092000 14.326000
C 19.704180 8.906090 15.191428
C 18.251963 8.493838 15.067380
C 15.646191 8.637226 16.048578
C 22.690001 3.108000 11.888000
C 21.193842 2.937344 12.027773
C 20.424379 3.663272 10.941587
C 21.556999 9.381000 10.318000
C 21.534843 10.633881 11.170470
C 20.214592 11.384578 11.044294
C 17.444891 11.476075 11.266675
C 14.454956 6.290219 13.501859
C 14.011527 7.568834 12.985209
C 15.752475 5.832935 13.355491
C 16.657135 6.581541 12.627322
C 14.987963 8.249127 12.166743
C 16.250896 7.783758 12.002949
C 13.523652 5.511032 14.193869
O 15.291578 4.967358 6.771173
O 11.835865 6.712498 8.744360
O 16.888891 11.913394 7.988829
O 15.190149 12.612371 6.696189
O 8.653756 8.360779 13.431216
O 9.510958 5.325234 11.982595
O 13.976301 0.655086 16.489357
O 14.200234 2.635577 15.539015
O 21.727106 6.779994 16.607031
O 20.938354 1.539223 11.993319
O 12.239864 5.113979 11.092517
O 9.035581 6.543601 9.359706
O 12.890823 8.031243 13.249388
O 18.798893 6.786189 11.880736
O 18.360622 5.185353 13.219892
S 9.234664 5.585143 18.209566
S 14.180395 5.254321 18.183201
S 17.259020 9.454729 16.267252
S 18.843563 10.426914 11.788514
H 19.388000 5.921000 7.549000
H 18.316000 6.790000 6.442000
H 17.695639 5.455200 7.381779
H 16.951567 7.579652 8.395570
H 18.090174 6.797991 9.498315
H 18.606766 8.155197 8.510983
H 16.010000 2.547000 7.097000
H 14.826554 2.133830 8.342035
H 17.447182 2.939882 8.871664
H 16.570429 4.442599 9.038637
H 14.345564 4.188526 11.043836
H 14.384787 2.879040 13.170144
H 18.271816 1.058252 9.978435
H 15.765433 0.747515 14.288552
H 18.892776 -0.622271 11.681893
H 17.663176 -0.780991 13.803396
H 13.065522 5.428217 6.025050
H 10.442110 5.386728 6.880653
H 11.156014 4.029812 6.000340
H 10.896320 4.376772 9.001383
H 10.388021 2.980438 8.064699
H 12.807137 3.063718 9.344772
H 12.656812 2.258306 7.765586
H 12.679000 9.128000 8.418000
H 14.197470 7.213579 6.756161
H 14.134000 8.423000 9.094000
H 15.487508 9.304200 7.202672
H 14.062664 10.073234 6.510259
H 13.791288 11.443314 8.515920
H 15.174862 10.636724 9.271838
H 6.494000 7.774000 10.493000
H 5.104000 8.463000 11.341000
H 6.406824 7.660944 12.241265
H 6.571043 10.325926 10.796652
H 6.815360 10.017920 12.516832
H 8.564409 8.886958 10.314088
H 8.917592 10.373490 11.182592
H 10.758364 8.533352 11.087075
H 11.101507 7.966953 12.654215
H 10.010000 2.919000 12.544000
H 8.815466 2.931618 13.848684
H 10.496422 3.405742 14.158581
H 7.635000 5.154000 15.639000
H 8.828967 6.634874 13.929391
H 9.106620 4.182364 15.626171
H 10.451938 6.154064 16.266172
H 8.995936 7.140363 16.343424
H 7.892109 5.501908 18.220438
H 11.199837 0.419000 16.369164
H 10.332163 1.466000 17.535999
H 11.765508 0.545048 18.020254
H 11.720218 2.854897 16.032543
H 12.412792 2.915526 17.623245
H 14.888000 5.102000 22.562000
H 14.081000 3.542000 22.336000
H 15.833484 3.613561 22.491114
H 16.035500 4.794411 20.344189
H 15.152678 3.306876 20.099199
H 13.000212 4.580111 20.185415
H 13.915974 6.073829 20.429211
H 12.861741 6.643410 16.788612
H 11.894177 6.079257 18.175224
H 13.072290 7.405118 18.382528
H 21.372000 4.239000 16.740000
H 20.774351 4.142606 15.081553
H 19.168873 5.208879 17.422667
H 18.600153 5.034792 15.763375
H 19.454405 2.761006 17.565695
H 17.043085 2.209995 17.614241
H 17.315783 3.846047 18.243368
H 16.689161 3.608685 16.611879
H 18.405193 1.335715 15.765285
H 18.306547 2.770766 14.747640
H 19.882332 2.145589 15.238194
H 21.658001 8.481000 14.546000
H 20.004570 6.109880 14.061027
H 20.431589 8.213027 13.269687
H 20.022087 8.806731 16.227709
H 19.793247 9.956026 14.908739
H 17.888754 8.690964 14.059585
H 18.132092 7.433722 15.297570
H 14.945031 9.143846 16.716623
H 15.291898 8.733749 15.024188
H 15.704803 7.582510 16.324560
H 23.214001 2.578000 12.684000
H 22.969999 4.161000 11.925000
H 23.016552 2.696785 10.933335
H 20.876202 3.344943 12.991600
H 19.985912 1.411562 12.039489
H 19.356619 3.504560 11.059846
H 20.598770 4.735819 10.999333
H 20.727522 3.309884 9.954695
H 21.438999 9.633000 9.264000
H 22.455000 8.774000 10.431000
H 20.711578 8.750731 10.587560
H 21.694963 10.372328 12.217731
H 22.341972 11.306855 10.875878
H 20.276831 12.349908 11.552835
H 19.964071 11.564803 9.997155
H 16.547729 10.990250 11.655733
H 17.528921 12.469432 11.714326
H 17.380791 11.558923 10.181421
H 12.248906 5.753451 10.368008
H 11.376913 5.222419 11.514301
H 9.958957 6.628954 9.084929
H 9.066185 6.174438 10.251827
H 16.079214 4.901557 13.794830
H 14.680432 9.177056 11.708085
H 16.985029 8.322596 11.422128
H 13.690108 3.469598 15.405411
198       
 energy: -5550.147767837225 gnorm: 0.032601920833 xtb: 6.7.1 (28d6122) iter: 40
N 14.981759 2.677978 12.389522
N 13.390331 4.231744 7.692830
N 13.445704 7.492135 7.368171
N 10.405690 8.306085 12.002731
N 8.972234 5.643805 14.136401
N 20.614504 6.667984 14.635769
N 12.784965 4.836364 14.765078
N 18.000263 6.161111 12.559371
C 18.378000 6.298000 7.413000
C 17.986279 7.259383 8.519650
C 15.474000 2.920000 7.970000
C 14.716778 4.118743 7.438973
C 16.459700 3.358731 9.073230
C 16.053320 2.912457 10.435786
C 15.047681 3.391458 11.219267
C 16.657282 1.842308 11.164503
C 15.966015 1.732231 12.384596
C 17.722065 0.978505 10.907193
C 16.305845 0.791126 13.352048
C 18.063402 0.045638 11.859503
C 17.360638 -0.046153 13.069209
C 12.610000 5.248000 6.997000
C 12.600756 6.552846 7.789777
C 11.223825 4.634851 6.904406
C 11.139168 3.763608 8.144794
C 12.544247 3.207087 8.300748
C 13.654000 8.721000 8.149000
C 14.517603 9.742007 7.443399
C 14.746335 10.953980 8.321948
C 15.697155 11.925110 7.605722
C 6.181000 8.303000 11.393000
C 6.949369 9.601311 11.519443
C 8.426597 9.403581 11.261411
C 9.161622 8.632700 12.336134
C 9.683000 3.447000 13.440000
C 9.379210 4.874673 13.118901
C 8.713000 5.185000 15.483000
C 9.383148 6.130847 16.464233
C 11.304000 1.104000 17.209000
C 12.200450 2.245582 16.791264
C 13.525642 1.754715 16.271471
C 14.965000 4.127000 22.080999
C 15.101249 4.283894 20.579245
C 13.953764 5.076247 19.984232
C 12.863973 6.469084 17.864443
C 20.693001 4.691000 16.016001
C 21.074863 6.143019 15.790548
C 19.263357 4.608262 16.515722
C 18.795698 3.187646 16.804953
C 17.381168 3.215050 17.357376
C 18.857103 2.307549 15.568134
C 20.662001 8.092000 14.326000
C 19.704300 8.906149 15.191521
C 18.251991 8.494076 15.067801
C 15.646330 8.637670 16.050354
C 22.690001 3.108000 11.888000
C 21.193880 2.937230 12.027973
C 20.424255 3.662786 10.941641
C 21.556999 9.381000 10.318000
C 21.535072 10.633862 11.170512
C 20.214539 11.384140 11.044727
C 17.443834 11.474781 11.266335
C 14.454369 6.289581 13.502524
C 14.010730 7.567488 12.984852
C 15.752311 5.832890 13.356948
C 16.656668 6.581610 12.628706
C 14.987040 8.248056 12.166315
C 16.250273 7.783396 12.003469
C 13.522792 5.510931 14.194663
O 15.291484 4.967267 6.771072
O 11.836403 6.712268 8.744678
O 16.888668 11.911389 7.987139
O 15.191043 12.612643 6.695650
O 8.653239 8.360738 13.431799
O 9.511123 5.325253 11.982456
O 13.974526 0.655467 16.486828
O 14.198025 2.636193 15.536889
O 21.727615 6.779725 16.606960
O 20.938780 1.539079 11.993840
O 12.239304 5.112803 11.091386
O 9.035926 6.544353 9.359076
O 12.890117 8.030162 13.248849
O 18.797945 6.785725 11.881002
O 18.360279 5.185495 13.221025
S 9.234817 5.585549 18.209042
S 14.179071 5.254042 18.183575
S 17.259392 9.454884 16.267984
S 18.843126 10.427144 11.788963
H 19.388000 5.921000 7.549000
H 18.316000 6.790000 6.442000
H 17.695595 5.455246 7.381884
H 16.951576 7.579769 8.395396
H 18.090288 6.798489 9.498289
H 18.606739 8.155456 8.510547
H 16.010000 2.547000 7.097000
H 14.826625 2.133832 8.342177
H 17.447344 2.940044 8.871117
H 16.570538 4.442539 9.038642
H 14.346725 4.188036 11.044589
H 14.386344 2.877709 13.170258
H 18.272318 1.058146 9.977035
H 15.766826 0.745435 14.287266
H 18.893713 -0.622862 11.679669
H 17.664652 -0.782638 13.801164
H 13.065524 5.428151 6.025036
H 10.442104 5.386883 6.880790
H 11.155773 4.029773 6.000577
H 10.896068 4.377353 9.001263
H 10.387812 2.980832 8.064960
H 12.807182 3.063988 9.345008
H 12.656793 2.258344 7.766103
H 12.679000 9.128000 8.418000
H 14.197396 7.213792 6.755916
H 14.134000 8.423000 9.094000
H 15.487477 9.304081 7.203135
H 14.063147 10.072771 6.509745
H 13.791204 11.444045 8.514768
H 15.174259 10.637435 9.271067
H 6.494000 7.774000 10.493000
H 5.104000 8.463000 11.341000
H 6.406753 7.660813 12.241204
H 6.570982 10.326039 10.796922
H 6.814952 10.017696 12.517063
H 8.564363 8.886616 10.314835
H 8.917419 10.373401 11.182864
H 10.758327 8.534054 11.088136
H 11.100992 7.966164 12.654747
H 10.010000 2.919000 12.544000
H 8.815287 2.931710 13.848314
H 10.496251 3.405891 14.158747
H 7.635000 5.154000 15.639000
H 8.829059 6.634840 13.929625
H 9.106485 4.182291 15.626107
H 10.452454 6.154125 16.265154
H 8.996498 7.140487 16.342787
H 7.892306 5.502006 18.220875
H 11.199837 0.419000 16.369164
H 10.332163 1.466000 17.535999
H 11.765392 0.544776 18.020096
H 11.719313 2.856351 16.034470
H 12.412823 2.914775 17.624510
H 14.888000 5.102000 22.562000
H 14.081000 3.542000 22.336000
H 15.833423 3.613570 22.491245
H 16.035379 4.793747 20.343817
H 15.152061 3.306472 20.099447
H 13.000015 4.580168 20.186661
H 13.916226 6.073684 20.429665
H 12.861732 6.645638 16.790480
H 11.894125 6.081913 18.177256
H 13.073988 7.405824 18.384808
H 21.372000 4.239000 16.740000
H 20.774120 4.142548 15.081611
H 19.169367 5.209094 17.423038
H 18.600018 5.034771 15.764079
H 19.454739 2.761464 17.566721
H 17.043213 2.210292 17.615025
H 17.316099 3.846171 18.244276
H 16.689445 3.609123 16.612827
H 18.405701 1.335628 15.766778
H 18.307055 2.770297 14.748662
H 19.882797 2.145422 15.239587
H 21.658001 8.481000 14.546000
H 20.003834 6.109876 14.062051
H 20.431534 8.213018 13.269704
H 20.022335 8.806705 16.227745
H 19.793348 9.956109 14.908922
H 17.888477 8.691454 14.060164
H 18.131914 7.433938 15.297851
H 14.945625 9.144401 16.718721
H 15.291612 8.734154 15.026080
H 15.704979 7.582932 16.326323
H 23.214001 2.578000 12.684000
H 22.969999 4.161000 11.925000
H 23.016535 2.696781 10.933334
H 20.876236 3.345049 12.991715
H 19.986408 1.411104 12.039930
H 19.356571 3.503367 11.059520
H 20.597986 4.735414 10.999610
H 20.727858 3.309751 9.954775
H 21.438999 9.633000 9.264000
H 22.455000 8.774000 10.431000
H 20.711575 8.750676 10.587514
H 21.695246 10.372253 12.217734
H 22.342054 11.307033 10.875933
H 20.276552 12.349556 11.553110
H 19.963633 11.564187 9.997666
H 16.546558 10.988738 11.654849
H 17.527559 12.468191 11.713874
H 17.380716 11.557642 10.181076
H 12.249825 5.754485 10.368805
H 11.377479 5.223312 11.514903
H 9.959374 6.628757 9.084356
H 9.066076 6.174302 10.250790
H 16.079159 4.901781 13.796844
H 14.678101 9.175188 11.707041
H 16.984306 8.320973 11.421482
H 13.687753 3.470273 15.404263
198       
 energy: -5550.147766911463 gnorm: 0.032613336645 xtb: 6.7.1 (28d6122) iter: 39
N 14.976916 2.681438 12.388658
N 13.390402 4.232093 7.693321
N 13.445633 7.492083 7.368168
N 10.407480 8.307282 11.999827
N 8.972198 5.643913 14.136436
N 20.614275 6.668174 14.636124
N 12.792117 4.832355 14.757871
N 18.004971 6.165868 12.555490
C 18.378000 6.298000 7.413000
C 17.985733 7.258842 8.519841
C 15.474000 2.920000 7.970000
C 14.716785 4.118818 7.439064
C 16.459408 3.358598 9.073535
C 16.051556 2.913938 10.436260
C 15.044533 3.393608 11.217629
C 16.654961 1.844993 11.167359
C 15.961678 1.736038 12.386506
C 17.720709 0.981458 10.912832
C 16.300306 0.796081 13.355556
C 18.060841 0.049693 11.866747
C 17.355930 -0.041146 13.075301
C 12.610000 5.248000 6.997000
C 12.599816 6.553284 7.789123
C 11.224010 4.634462 6.904045
C 11.139243 3.763215 8.144461
C 12.544341 3.206970 8.300536
C 13.654000 8.721000 8.149000
C 14.517792 9.742086 7.443867
C 14.748691 10.952224 8.324437
C 15.695972 11.926514 7.607487
C 6.181000 8.303000 11.393000
C 6.949741 9.601247 11.519538
C 8.427039 9.404128 11.260433
C 9.163375 8.633201 12.334224
C 9.683000 3.447000 13.440000
C 9.379572 4.874823 13.119119
C 8.713000 5.185000 15.483000
C 9.382575 6.131048 16.464418
C 11.304000 1.104000 17.209000
C 12.200473 2.245463 16.790977
C 13.528776 1.755139 16.278519
C 14.965000 4.127000 22.080999
C 15.102203 4.283275 20.579285
C 13.955217 5.075088 19.982580
C 12.863435 6.459914 17.857872
C 20.693001 4.691000 16.016001
C 21.074844 6.143104 15.790742
C 19.263205 4.608617 16.515228
C 18.793808 3.187959 16.801271
C 17.378784 3.215842 17.352362
C 18.855192 2.310257 15.562759
C 20.662001 8.092000 14.326000
C 19.704109 8.906565 15.190942
C 18.251839 8.494956 15.065848
C 15.645332 8.638832 16.043411
C 22.690001 3.108000 11.888000
C 21.193748 2.937767 12.027116
C 20.425226 3.663807 10.940276
C 21.556999 9.381000 10.318000
C 21.536678 10.634671 11.169354
C 20.217676 11.387285 11.042315
C 17.448364 11.485888 11.268479
C 14.458505 6.290900 13.497323
C 14.014357 7.569715 12.982377
C 15.756739 5.835239 13.350892
C 16.661077 6.585872 12.624731
C 14.990831 8.252439 12.165569
C 16.254511 7.789026 12.002180
C 13.528479 5.509218 14.188202
O 15.291572 4.967480 6.771393
O 11.834457 6.713223 8.743143
O 16.887150 11.921006 7.991510
O 15.187250 12.608768 6.694537
O 8.656529 8.361546 13.430657
O 9.510701 5.325272 11.982517
O 13.978634 0.656997 16.497932
O 14.203904 2.636702 15.546298
O 21.727903 6.779659 16.607031
O 20.937712 1.539801 11.992691
O 12.238246 5.115073 11.090368
O 9.033797 6.543025 9.360018
O 12.893443 8.031477 13.246942
O 18.802721 6.791732 11.878332
O 18.365099 5.189635 13.216342
S 9.235316 5.585731 18.209282
S 14.182379 5.250430 18.182087
S 17.258028 9.455893 16.264927
S 18.845150 10.433267 11.788169
H 19.388000 5.921000 7.549000
H 18.316000 6.790000 6.442000
H 17.695766 5.455085 7.381541
H 16.951130 7.579398 8.395160
H 18.089037 6.797313 9.498256
H 18.606375 8.154786 8.511788
H 16.010000 2.547000 7.097000
H 14.826482 2.133812 8.341895
H 17.446850 2.938780 8.872497
H 16.571207 4.442347 9.038097
H 14.343392 4.189642 11.041047
H 14.380136 2.882253 13.168184
H 18.272335 1.060213 9.983354
H 15.760287 0.751561 14.290265
H 18.891632 -0.618834 11.688904
H 17.659000 -0.776670 13.808668
H 13.065828 5.428032 6.025164
H 10.442122 5.386316 6.880147
H 11.156395 4.029363 6.000190
H 10.896110 4.376750 9.001070
H 10.388103 2.980231 8.064489
H 12.806968 3.063585 9.344836
H 12.657164 2.258458 7.765513
H 12.679000 9.128000 8.418000
H 14.197705 7.213312 6.756551
H 14.134000 8.423000 9.094000
H 15.486831 9.303564 7.201163
H 14.062160 10.075175 6.511559
H 13.793490 11.441022 8.520773
H 15.179371 10.634123 9.271886
H 6.494000 7.774000 10.493000
H 5.104000 8.463000 11.341000
H 6.406713 7.660712 12.241161
H 6.570976 10.326225 10.797458
H 6.816038 10.017406 12.517349
H 8.564466 8.887696 10.313520
H 8.917164 10.374350 11.181977
H 10.759682 8.535440 11.085133
H 11.102867 7.968246 12.652303
H 10.010000 2.919000 12.544000
H 8.815681 2.931536 13.848989
H 10.496709 3.406057 14.158311
H 7.635000 5.154000 15.639000
H 8.829494 6.634976 13.929503
H 9.106740 4.182431 15.626199
H 10.451909 6.154811 16.265501
H 8.995724 7.140609 16.342983
H 7.892769 5.502277 18.220861
H 11.199837 0.419000 16.369164
H 10.332163 1.466000 17.535999
H 11.765470 0.545089 18.020294
H 11.721717 2.852400 16.029541
H 12.408413 2.918154 17.622616
H 14.888000 5.102000 22.562000
H 14.081000 3.542000 22.336000
H 15.833316 3.613642 22.491604
H 16.036469 4.793105 20.344273
H 15.153432 3.305588 20.100027
H 13.001137 4.579471 20.184685
H 13.917386 6.073150 20.426588
H 12.862483 6.634514 16.783607
H 11.894380 6.069670 18.169744
H 13.069017 7.398364 18.377024
H 21.372000 4.239000 16.740000
H 20.774267 4.142734 15.081509
H 19.169573 5.207747 17.423721
H 18.600483 5.037498 15.764289
H 19.451681 2.759501 17.562784
H 17.039734 2.211067 17.608631
H 17.313221 3.846225 18.239805
H 16.688028 3.610998 16.607491
H 18.402773 1.338355 15.759214
H 18.305918 2.775089 14.743887
H 19.880911 2.147859 15.234417
H 21.658001 8.481000 14.546000
H 20.004444 6.109828 14.061720
H 20.431839 8.212778 13.269628
H 20.021374 8.807096 16.227421
H 19.793837 9.956450 14.908249
H 17.889612 8.692529 14.057802
H 18.131475 7.434757 15.295527
H 14.943197 9.145497 16.710367
H 15.292747 8.735796 15.018502
H 15.703072 7.583963 16.319130
H 23.214001 2.578000 12.684000
H 22.969999 4.161000 11.925000
H 23.016796 2.696778 10.933404
H 20.875694 3.345687 12.990666
H 19.985283 1.412523 12.040200
H 19.357275 3.506620 11.058661
H 20.601091 4.736158 10.997099
H 20.727921 3.309139 9.953712
H 21.438999 9.633000 9.264000
H 22.455000 8.774000 10.431000
H 20.711332 8.751390 10.588260
H 21.696262 10.373976 12.216897
H 22.344955 11.305992 10.874097
H 20.281466 12.353350 11.549266
H 19.967266 11.566271 9.994931
H 16.550415 11.003046 11.659499
H 17.536442 12.479212 11.715447
H 17.382486 11.568398 10.183333
H 12.248013 5.756592 10.367628
H 11.376215 5.225429 11.513747
H 9.956987 6.628003 9.084719
H 9.064518 6.173216 10.251843
H 16.084141 4.903225 13.788299
H 14.681851 9.180707 11.708580
H 16.988247 8.329089 11.422071
H 13.693730 3.470309 15.409258
198       
 energy: -5550.147762133313 gnorm: 0.032612237582 xtb: 6.7.1 (28d6122) iter: 38
N 14.982628 2.679566 12.391020
N 13.390532 4.232194 7.693223
N 13.445601 7.492089 7.368119
N 10.408580 8.309062 12.000506
N 8.972785 5.644114 14.136687
N 20.614197 6.668167 14.636015
N 12.792089 4.836936 14.761076
N 18.004856 6.165564 12.555802
C 18.378000 6.298000 7.413000
C 17.985764 7.258537 8.520097
C 15.474000 2.920000 7.970000
C 14.716721 4.118456 7.438345
C 16.458925 3.359792 9.073653
C 16.053059 2.913158 10.436367
C 15.047828 3.392547 11.220292
C 16.657701 1.843426 11.165330
C 15.967052 1.733874 12.385914
C 17.722630 0.979727 10.907965
C 16.307522 0.793329 13.353713
C 18.064611 0.047332 11.860652
C 17.362356 -0.044016 13.070717
C 12.610000 5.248000 6.997000
C 12.599836 6.553289 7.789117
C 11.224043 4.634322 6.904449
C 11.139454 3.763531 8.145258
C 12.544654 3.207646 8.301652
C 13.654000 8.721000 8.149000
C 14.517783 9.742080 7.443842
C 14.747230 10.953015 8.323755
C 15.697022 11.925650 7.607813
C 6.181000 8.303000 11.393000
C 6.949969 9.601230 11.519080
C 8.427389 9.404041 11.260073
C 9.163825 8.633533 12.334086
C 9.683000 3.447000 13.440000
C 9.380933 4.875216 13.119564
C 8.713000 5.185000 15.483000
C 9.382092 6.130901 16.464912
C 11.304000 1.104000 17.209000
C 12.200394 2.245282 16.789873
C 13.528210 1.754808 16.276375
C 14.965000 4.127000 22.080999
C 15.101281 4.284225 20.579193
C 13.954613 5.077556 19.983797
C 12.862027 6.463138 17.859301
C 20.693001 4.691000 16.016001
C 21.074747 6.143111 15.790611
C 19.263050 4.609181 16.514996
C 18.793095 3.188916 16.802059
C 17.377962 3.217755 17.352856
C 18.854301 2.310127 15.564319
C 20.662001 8.092000 14.326000
C 19.704420 8.906520 15.191362
C 18.252136 8.494814 15.067056
C 15.646017 8.639184 16.045092
C 22.690001 3.108000 11.888000
C 21.193817 2.937295 12.027140
C 20.424856 3.663564 10.940789
C 21.556999 9.381000 10.318000
C 21.536800 10.634617 11.169402
C 20.217901 11.387381 11.042631
C 17.448822 11.484915 11.268160
C 14.459017 6.294063 13.499546
C 14.015718 7.573534 12.985117
C 15.756544 5.837015 13.352022
C 16.661402 6.586734 12.625444
C 14.992604 8.255302 12.168113
C 16.255713 7.790500 12.003687
C 13.529025 5.512780 14.191011
O 15.291372 4.966505 6.769760
O 11.834956 6.713010 8.743551
O 16.888458 11.915711 7.991147
O 15.189959 12.610918 6.696199
O 8.656990 8.361866 13.430519
O 9.513187 5.325927 11.983192
O 13.978984 0.657053 16.495182
O 14.202851 2.637006 15.543857
O 21.727869 6.779743 16.606812
O 20.938406 1.539218 11.992005
O 12.242137 5.116836 11.092824
O 9.034637 6.542719 9.361704
O 12.895140 8.035987 13.249945
O 18.803209 6.790870 11.878783
O 18.364244 5.188778 13.216363
S 9.233109 5.586164 18.209810
S 14.180035 5.252396 18.182936
S 17.259104 9.455381 16.267084
S 18.845814 10.433048 11.788932
H 19.388000 5.921000 7.549000
H 18.316000 6.790000 6.442000
H 17.695829 5.455019 7.381455
H 16.951195 7.579251 8.395549
H 18.089016 6.796600 9.498343
H 18.606470 8.154429 8.512397
H 16.010000 2.547000 7.097000
H 14.826578 2.133870 8.342159
H 17.447363 2.942795 8.871661
H 16.567934 4.443869 9.039395
H 14.346378 4.188767 11.045569
H 14.387716 2.878849 13.172401
H 18.272251 1.058894 9.977317
H 15.769300 0.748460 14.289475
H 18.894836 -0.621314 11.680590
H 17.666916 -0.779956 13.803075
H 13.065622 5.428008 6.025073
H 10.442089 5.386110 6.880280
H 11.156450 4.028879 6.000819
H 10.896191 4.377225 9.001708
H 10.388555 2.980277 8.065512
H 12.807410 3.065430 9.346083
H 12.657462 2.258597 7.767569
H 12.679000 9.128000 8.418000
H 14.197487 7.213536 6.756175
H 14.134000 8.423000 9.094000
H 15.487319 9.304009 7.202267
H 14.062598 10.074028 6.510855
H 13.791839 11.442554 8.517364
H 15.175581 10.635476 9.272499
H 6.494000 7.774000 10.493000
H 5.104000 8.463000 11.341000
H 6.406807 7.660877 12.241251
H 6.571364 10.325826 10.796523
H 6.816249 10.018000 12.516634
H 8.564994 8.887313 10.313354
H 8.917294 10.374374 11.181330
H 10.761037 8.536933 11.085860
H 11.103889 7.971267 12.653792
H 10.010000 2.919000 12.544000
H 8.815371 2.931906 13.848827
H 10.496525 3.405282 14.158531
H 7.635000 5.154000 15.639000
H 8.830274 6.635180 13.929622
H 9.106751 4.182450 15.626258
H 10.451642 6.154022 16.267111
H 8.995896 7.140633 16.342852
H 7.890471 5.503780 18.219866
H 11.199837 0.419000 16.369164
H 10.332163 1.466000 17.535999
H 11.765758 0.545441 18.020391
H 11.721137 2.851662 16.028313
H 12.409152 2.918654 17.620825
H 14.888000 5.102000 22.562000
H 14.081000 3.542000 22.336000
H 15.833568 3.613562 22.490906
H 16.035776 4.793511 20.343906
H 15.151366 3.306885 20.099092
H 13.000042 4.583240 20.186731
H 13.918536 6.075696 20.427734
H 12.860160 6.636806 16.784931
H 11.892878 6.073964 18.172405
H 13.069068 7.401790 18.377476
H 21.372000 4.239000 16.740000
H 20.774199 4.142572 15.081570
H 19.169294 5.209059 17.422997
H 18.600700 5.037648 15.763476
H 19.450666 2.760863 17.564056
H 17.038857 2.213373 17.610655
H 17.312225 3.849553 18.239279
H 16.687403 3.611742 16.607168
H 18.402359 1.338192 15.761886
H 18.304459 2.774000 14.745281
H 19.879919 2.147834 15.235619
H 21.658001 8.481000 14.546000
H 20.005306 6.109747 14.060693
H 20.431601 8.212950 13.269708
H 20.022234 8.807099 16.227678
H 19.793995 9.956388 14.908568
H 17.889261 8.692520 14.059278
H 18.132109 7.434556 15.296598
H 14.944327 9.145219 16.713013
H 15.292975 8.737604 15.020511
H 15.703478 7.583956 16.319418
H 23.214001 2.578000 12.684000
H 22.969999 4.161000 11.925000
H 23.016850 2.696812 10.933408
H 20.875708 3.344538 12.990962
H 19.985981 1.411427 12.038287
H 19.356930 3.506703 11.059852
H 20.601065 4.735868 10.997474
H 20.726852 3.308773 9.954050
H 21.438999 9.633000 9.264000
H 22.455000 8.774000 10.431000
H 20.711334 8.751437 10.588305
H 21.696634 10.373860 12.216898
H 22.345091 11.305829 10.873984
H 20.281902 12.353404 11.549632
H 19.967278 11.566397 9.995300
H 16.551167 11.002214 11.659982
H 17.536583 12.478764 11.713984
H 17.382622 11.566133 10.182922
H 12.249852 5.755493 10.367527
H 11.378927 5.225064 11.514385
H 9.957701 6.628826 9.086237
H 9.066054 6.174220 10.254097
H 16.083477 4.904680 13.789011
H 14.685136 9.184330 11.711620
H 16.989525 8.330781 11.423860
H 13.693307 3.471250 15.408656
198       
 energy: -5550.147753710186 gnorm: 0.032653101879 xtb: 6.7.1 (28d6122) iter: 37
N 14.991687 2.675945 12.394011
N 13.390642 4.232176 7.692913
N 13.445736 7.492004 7.368255
N 10.408965 8.310449 12.002969
N 8.973680 5.644287 14.137041
N 20.614220 6.668005 14.635608
N 12.789845 4.843610 14.767699
N 18.003267 6.164401 12.557359
C 18.378000 6.298000 7.413000
C 17.986118 7.258490 8.520258
C 15.474000 2.920000 7.970000
C 14.716660 4.118068 7.437595
C 16.458712 3.361243 9.073508
C 16.055925 2.911728 10.436212
C 15.053412 3.390520 11.224019
C 16.662310 1.840589 11.161683
C 15.975533 1.729763 12.384299
C 17.725809 0.976547 10.899724
C 16.318613 0.787945 13.349874
C 18.070406 0.042827 11.850203
C 17.372164 -0.049564 13.062510
C 12.610000 5.248000 6.997000
C 12.600493 6.552982 7.789636
C 11.223969 4.634323 6.905128
C 11.139636 3.764192 8.146448
C 12.544975 3.208580 8.303197
C 13.654000 8.721000 8.149000
C 14.517832 9.741976 7.443645
C 14.744488 10.954818 8.321728
C 15.698661 11.924210 7.607227
C 6.181000 8.303000 11.393000
C 6.950063 9.601275 11.518377
C 8.427667 9.403831 11.260212
C 9.163786 8.634513 12.335330
C 9.683000 3.447000 13.440000
C 9.381996 4.875463 13.119927
C 8.713000 5.185000 15.483000
C 9.381797 6.130713 16.465368
C 11.304000 1.104000 17.209000
C 12.200548 2.245073 16.788586
C 13.526462 1.753730 16.270958
C 14.965000 4.127000 22.080999
C 15.099677 4.285944 20.579035
C 13.953252 5.081489 19.985991
C 12.860770 6.471420 17.864094
C 20.693001 4.691000 16.016001
C 21.074739 6.143036 15.790198
C 19.262836 4.609659 16.514683
C 18.792946 3.189898 16.804483
C 17.377945 3.219769 17.355659
C 18.853786 2.308713 15.568428
C 20.662001 8.092000 14.326000
C 19.705097 8.906276 15.192269
C 18.252745 8.494451 15.069538
C 15.647171 8.639673 16.050867
C 22.690001 3.108000 11.888000
C 21.193956 2.936502 12.027628
C 20.423901 3.662723 10.942106
C 21.556999 9.381000 10.318000
C 21.536814 10.634167 11.170059
C 20.217464 11.386250 11.044338
C 17.447300 11.479422 11.266716
C 14.458366 6.297225 13.504032
C 14.015668 7.576848 12.988450
C 15.755140 5.838649 13.355886
C 16.660416 6.586466 12.627482
C 14.993189 8.257141 12.171302
C 16.255522 7.790296 12.005771
C 13.528072 5.517539 14.197041
O 15.291150 4.965455 6.768032
O 11.836208 6.712402 8.744624
O 16.890368 11.906820 7.989429
O 15.194696 12.613976 6.697302
O 8.655658 8.361752 13.430897
O 9.516438 5.326580 11.983978
O 13.977629 0.656106 16.487640
O 14.199169 2.635954 15.535789
O 21.727602 6.779972 16.606415
O 20.939690 1.538177 11.991948
O 12.245175 5.114771 11.092698
O 9.036819 6.545516 9.364486
O 12.895672 8.040330 13.253628
O 18.802027 6.788300 11.879548
O 18.362194 5.187453 13.218017
S 9.229422 5.586499 18.210163
S 14.176425 5.257017 18.184526
S 17.261164 9.454367 16.271250
S 18.845716 10.430763 11.789947
H 19.388000 5.921000 7.549000
H 18.316000 6.790000 6.442000
H 17.695801 5.455033 7.381543
H 16.951546 7.579330 8.396126
H 18.089720 6.796446 9.498414
H 18.606848 8.154359 8.512374
H 16.010000 2.547000 7.097000
H 14.826801 2.133940 8.342676
H 17.448322 2.947919 8.869834
H 16.564131 4.445704 9.040906
H 14.351899 4.187428 11.052539
H 14.399432 2.872865 13.178009
H 18.272430 1.056539 9.967382
H 15.782992 0.742128 14.287119
H 18.899656 -0.626045 11.666567
H 17.678825 -0.786471 13.793030
H 13.065234 5.428067 6.024913
H 10.441978 5.386065 6.880722
H 11.156168 4.028314 6.001901
H 10.895953 4.378439 9.002388
H 10.388880 2.980763 8.067113
H 12.808178 3.067941 9.347733
H 12.657692 2.258740 7.770548
H 12.679000 9.128000 8.418000
H 14.197371 7.213857 6.755828
H 14.134000 8.423000 9.094000
H 15.488362 9.304692 7.204679
H 14.063827 10.071500 6.509184
H 13.788828 11.445771 8.510250
H 15.168737 10.639064 9.272940
H 6.494000 7.774000 10.493000
H 5.104000 8.463000 11.341000
H 6.406955 7.661184 12.241423
H 6.571830 10.325209 10.794949
H 6.815945 10.019008 12.515473
H 8.565716 8.886374 10.313939
H 8.917568 10.374110 11.180929
H 10.761961 8.537697 11.088370
H 11.104029 7.972391 12.656384
H 10.010000 2.919000 12.544000
H 8.814860 2.932385 13.848298
H 10.496046 3.404279 14.159087
H 7.635000 5.154000 15.639000
H 8.831307 6.635335 13.929735
H 9.106585 4.182376 15.626325
H 10.451583 6.153064 16.268904
H 8.996265 7.140603 16.342615
H 7.886705 5.505444 18.219156
H 11.199837 0.419000 16.369164
H 10.332163 1.466000 17.535999
H 11.766094 0.545772 18.020424
H 11.719878 2.852849 16.029030
H 12.412681 2.917529 17.619480
H 14.888000 5.102000 22.562000
H 14.081000 3.542000 22.336000
H 15.833952 3.613433 22.489826
H 16.034410 4.794609 20.343405
H 15.148258 3.309246 20.097504
H 12.998268 4.588506 20.189816
H 13.919435 6.079344 20.430576
H 12.856860 6.644030 16.789602
H 11.891293 6.085087 18.179550
H 13.071556 7.409992 18.380838
H 21.372000 4.239000 16.740000
H 20.774162 4.142225 15.081726
H 19.168522 5.211300 17.421453
H 18.600861 5.036432 15.761919
H 19.450727 2.763313 17.567125
H 17.039124 2.215898 17.615767
H 17.312401 3.853451 18.240715
H 16.687180 3.612129 16.609295
H 18.402719 1.336799 15.768311
H 18.302954 2.770581 14.748936
H 19.879238 2.146500 15.239176
H 21.658001 8.481000 14.546000
H 20.006233 6.109614 14.059321
H 20.431131 8.213356 13.269845
H 20.023947 8.806652 16.228228
H 19.794323 9.956197 14.909608
H 17.888327 8.692518 14.062395
H 18.133036 7.434146 15.298899